 Gaussian 16, Revision C.01,
 Gaussian 16:  ES64L-G16RevC.01  3-Jul-2019

 ------------------
 #p B3LYP/6-31G Opt
 ------------------

 ---------------------
 Geometry Optimization
 ---------------------
 Symbolic Z-matrix:
 Charge =  0 Multiplicity = 1

 SCF Done:  E(RB3LYP) =  -969.528608813     A.U. after   16 cycles
 SCF Done:  E(RB3LYP) =  -969.608202777     A.U. after   13 cycles
 SCF Done:  E(RB3LYP) =  -969.647224420     A.U. after   14 cycles
 SCF Done:  E(RB3LYP) =  -969.649661608     A.U. after   13 cycles
 SCF Done:  E(RB3LYP) =  -969.651344083     A.U. after   13 cycles
 SCF Done:  E(RB3LYP) =  -969.652160502     A.U. after   13 cycles
 SCF Done:  E(RB3LYP) =  -969.652315755     A.U. after   12 cycles
 SCF Done:  E(RB3LYP) =  -969.652351433     A.U. after   11 cycles
 SCF Done:  E(RB3LYP) =  -969.652358923     A.U. after    9 cycles
 SCF Done:  E(RB3LYP) =  -969.652368492     A.U. after   11 cycles
 SCF Done:  E(RB3LYP) =  -969.652369805     A.U. after    9 cycles
 SCF Done:  E(RB3LYP) =  -969.652370081     A.U. after    8 cycles
 Optimization completed.
    -- Stationary point found.

                         Standard orientation:
 ---------------------------------------------------------------------
 Center     Atomic      Atomic             Coordinates (Angstroms)
 Number     Number       Type             X           Y           Z
 ---------------------------------------------------------------------
      1          6           0        5.088266   -2.844932   -0.367055
      2          7           0        3.819650   -2.089117   -0.299211
      3          6           0        4.109036   -0.756415    0.019169
      4          6           0        3.054829    0.269569    0.018960
      5          6           0        3.437247    1.633632    0.038754
      6          1           0        4.496774    1.858546    0.061132
      7          6           0        2.492936    2.655056    0.032726
      8          6           0        1.139741    2.297040    0.010269
      9          7           0       -0.000008    3.100196   -0.000027
     10          6           0       -1.139752    2.297031   -0.010304
     11          6           0       -0.727444    0.933555   -0.003611
     12          6           0        0.727441    0.933558    0.003348
     13          6           0        1.695523   -0.076240    0.009469
     14          1           0        1.395181   -1.118653    0.040470
     15          6           0       -1.695524   -0.076249   -0.009764
     16          6           0       -3.054833    0.269557   -0.019038
     17          6           0       -4.109040   -0.756426   -0.019169
     18          7           0       -3.819618   -2.089144    0.299057
     19          6           0       -5.088226   -2.844928    0.367186
     20          6           0       -6.095526   -1.803323   -0.227516
     21          7           0       -5.352594   -0.511529   -0.321731
     22          1           0       -6.988979   -1.678374    0.391542
     23          1           0       -6.424927   -2.096374   -1.231214
     24          1           0       -5.337523   -3.112719    1.403404
     25          1           0       -5.038529   -3.764979   -0.223011
     26          1           0       -3.044701   -2.329134    0.898248
     27          6           0       -3.437259    1.633621   -0.038659
     28          6           0       -2.492951    2.655045   -0.032644
     29          1           0       -2.802087    3.695062   -0.045199
     30          1           0       -4.496790    1.858528   -0.060910
     31          1           0       -1.395186   -1.118655   -0.041050
     32          1           0       -0.000018    4.105971    0.000701
     33          1           0        2.802074    3.695072    0.045263
     34          7           0        5.352534   -0.511547    0.321966
     35          6           0        6.095518   -1.803300    0.227704
     36          1           0        6.988964   -1.678267   -0.391356
     37          1           0        6.424949   -2.096388    1.231378
     38          1           0        3.044982   -2.328973   -0.898786
     39          1           0        5.038445   -3.764906    0.223254
     40          1           0        5.337714   -3.112872   -1.403192
 ---------------------------------------------------------------------

 The electronic state is 1-A.
 Alpha  occ. eigenvalues --  -14.38048 -14.34045 -14.34045 -14.29676 -14.29675
 Alpha  occ. eigenvalues --  -10.24780 -10.24780 -10.23430 -10.23429 -10.21807
 Alpha  occ. eigenvalues --  -10.21807 -10.20225 -10.20225 -10.19651 -10.19651
 Alpha  occ. eigenvalues --  -10.19611 -10.19610 -10.19563 -10.19541 -10.19300
 Alpha  occ. eigenvalues --  -10.19300 -10.18684 -10.18684  -0.98997  -0.97765
 Alpha  occ. eigenvalues --   -0.97757  -0.85883  -0.85597  -0.85008  -0.84995
 Alpha  occ. eigenvalues --   -0.79039  -0.78044  -0.76449  -0.73867  -0.72270
 Alpha  occ. eigenvalues --   -0.72194  -0.66169  -0.63286  -0.62216  -0.62099
 Alpha  occ. eigenvalues --   -0.61173  -0.58725  -0.56974  -0.56010  -0.54874
 Alpha  occ. eigenvalues --   -0.54447  -0.52103  -0.51720  -0.47853  -0.47799
 Alpha  occ. eigenvalues --   -0.47177  -0.46067  -0.45202  -0.44157  -0.44032
 Alpha  occ. eigenvalues --   -0.43702  -0.42138  -0.41940  -0.41110  -0.40550
 Alpha  occ. eigenvalues --   -0.39230  -0.38789  -0.38236  -0.38106  -0.37771
 Alpha  occ. eigenvalues --   -0.37054  -0.36567  -0.36343  -0.34880  -0.34302
 Alpha  occ. eigenvalues --   -0.33162  -0.31672  -0.28293  -0.25579  -0.24472
 Alpha  occ. eigenvalues --   -0.24465  -0.22342  -0.21645  -0.20146  -0.19859
 Alpha virt. eigenvalues --   -0.03033  -0.02618  -0.00778   0.03098   0.07178
 Alpha virt. eigenvalues --    0.07538   0.07906   0.08500   0.09238   0.10677
 Alpha virt. eigenvalues --    0.11072   0.12240   0.12376   0.12947   0.13516

 Mulliken charges:
               1
     1  C   -0.100483
     2  N   -0.650996
     3  C    0.308432
     4  C    0.096943
     5  C   -0.162105
     6  H    0.167238
     7  C   -0.109239
     8  C    0.291130
     9  N   -0.841057
    10  C    0.291124
    11  C   -0.008784
    12  C   -0.008785
    13  C   -0.145431
    14  H    0.133025
    15  C   -0.145438
    16  C    0.096950
    17  C    0.308467
    18  N   -0.651023
    19  C   -0.100469
    20  C   -0.170629
    21  N   -0.408002
    22  H    0.148475
    23  H    0.155480
    24  H    0.139374
    25  H    0.148471
    26  H    0.299008
    27  C   -0.162105
    28  C   -0.109238
    29  H    0.130581
    30  H    0.167242
    31  H    0.133025
    32  H    0.316046
    33  H    0.130580
    34  N   -0.407986
    35  C   -0.170632
    36  H    0.148477
    37  H    0.155481
    38  H    0.299005
    39  H    0.148477
    40  H    0.139373
 Sum of Mulliken charges =  -0.00000

 Dipole moment (field-independent basis, Debye):
    X=              0.0006    Y=             -1.4938    Z=              0.0006  Tot=              1.4938
 Quadrupole moment (field-independent basis, Debye-Ang):
   XX=           -148.1675   YY=           -101.5511   ZZ=           -136.6762
   XY=             -0.0002   XZ=            -12.2820   YZ=              0.0068

 Normal termination of Gaussian 16 at Wed Apr  2 19:37:34 2025.
