 Gaussian 16, Revision C.01,
 Gaussian 16:  ES64L-G16RevC.01  3-Jul-2019

 -------------------------------------------
 #p B3LYP/6-31G SCRF=(PCM,Solvent=Water) Opt
 -------------------------------------------

 ---------------------
 Geometry Optimization
 ---------------------
 Symbolic Z-matrix:
 Charge =  0 Multiplicity = 1

 SCF Done:  E(RB3LYP) =  -969.549542972     A.U. after   13 cycles
 SCF Done:  E(RB3LYP) =  -969.629695454     A.U. after   12 cycles
 SCF Done:  E(RB3LYP) =  -969.668955431     A.U. after   12 cycles
 SCF Done:  E(RB3LYP) =  -969.671432712     A.U. after   11 cycles
 SCF Done:  E(RB3LYP) =  -969.673074174     A.U. after   11 cycles
 SCF Done:  E(RB3LYP) =  -969.673879913     A.U. after   11 cycles
 SCF Done:  E(RB3LYP) =  -969.674058755     A.U. after   10 cycles
 SCF Done:  E(RB3LYP) =  -969.674128455     A.U. after   10 cycles
 SCF Done:  E(RB3LYP) =  -969.674152353     A.U. after   10 cycles
 SCF Done:  E(RB3LYP) =  -969.674186286     A.U. after   10 cycles
 SCF Done:  E(RB3LYP) =  -969.674191015     A.U. after    8 cycles
 SCF Done:  E(RB3LYP) =  -969.674191662     A.U. after    8 cycles
 SCF Done:  E(RB3LYP) =  -969.674191902     A.U. after    8 cycles
 SCF Done:  E(RB3LYP) =  -969.674191993     A.U. after    7 cycles
 Optimization completed.
    -- Stationary point found.

                         Standard orientation:
 ---------------------------------------------------------------------
 Center     Atomic      Atomic             Coordinates (Angstroms)
 Number     Number       Type             X           Y           Z
 ---------------------------------------------------------------------
      1          6           0        5.077361   -2.849800   -0.367786
      2          7           0        3.811909   -2.084438   -0.297153
      3          6           0        4.104727   -0.759675    0.018008
      4          6           0        3.053929    0.273008    0.010928
      5          6           0        3.434263    1.639248    0.019508
      6          1           0        4.491928    1.873460    0.026274
      7          6           0        2.491970    2.663253    0.015362
      8          6           0        1.137376    2.305533    0.004505
      9          7           0        0.000018    3.108012   -0.000146
     10          6           0       -1.137340    2.305526   -0.004273
     11          6           0       -0.727246    0.939548   -0.000579
     12          6           0        0.727287    0.939553    0.001582
     13          6           0        1.693382   -0.072572    0.007450
     14          1           0        1.388871   -1.113368    0.035671
     15          6           0       -1.693332   -0.072580   -0.006597
     16          6           0       -3.053884    0.272985   -0.010809
     17          6           0       -4.104715   -0.759672   -0.018035
     18          7           0       -3.812020   -2.084468    0.297094
     19          6           0       -5.077513   -2.849757    0.367545
     20          6           0       -6.087772   -1.823704   -0.239535
     21          7           0       -5.351659   -0.521524   -0.334843
     22          1           0       -6.986192   -1.705974    0.373588
     23          1           0       -6.409330   -2.126929   -1.243037
     24          1           0       -5.323325   -3.107189    1.405445
     25          1           0       -5.018181   -3.774874   -0.212094
     26          1           0       -3.033465   -2.330100    0.890373
     27          6           0       -3.434213    1.639224   -0.019988
     28          6           0       -2.491928    2.663236   -0.015792
     29          1           0       -2.800367    3.702764   -0.019107
     30          1           0       -4.491874    1.873425   -0.027324
     31          1           0       -1.388761   -1.113375   -0.034137
     32          1           0        0.000011    4.115684    0.000135
     33          1           0        2.800405    3.702784    0.018292
     34          7           0        5.351719   -0.521607    0.334680
     35          6           0        6.087752   -1.823823    0.239208
     36          1           0        6.986092   -1.706106   -0.374037
     37          1           0        6.409439   -2.127115    1.242648
     38          1           0        3.033298   -2.329939   -0.890419
     39          1           0        5.018042   -3.774933    0.211826
     40          1           0        5.323025   -3.107203   -1.405727
 ---------------------------------------------------------------------

 The electronic state is 1-A.
 Alpha  occ. eigenvalues --  -14.37995 -14.34286 -14.34286 -14.30464 -14.30463
 Alpha  occ. eigenvalues --  -10.25624 -10.25624 -10.23798 -10.23797 -10.21529
 Alpha  occ. eigenvalues --  -10.21529 -10.20476 -10.20476 -10.20303 -10.20303
 Alpha  occ. eigenvalues --  -10.20073 -10.20066 -10.20029 -10.20011 -10.19625
 Alpha  occ. eigenvalues --  -10.19625 -10.19391 -10.19391  -0.99208  -0.98196
 Alpha  occ. eigenvalues --   -0.98185  -0.86356  -0.86006  -0.85292  -0.85279
 Alpha  occ. eigenvalues --   -0.79442  -0.78416  -0.76797  -0.74222  -0.72603
 Alpha  occ. eigenvalues --   -0.72486  -0.66429  -0.63583  -0.62438  -0.62317
 Alpha  occ. eigenvalues --   -0.61402  -0.58953  -0.57300  -0.56284  -0.55033
 Alpha  occ. eigenvalues --   -0.54592  -0.52447  -0.52168  -0.47955  -0.47911
 Alpha  occ. eigenvalues --   -0.47476  -0.46195  -0.45342  -0.44441  -0.44241
 Alpha  occ. eigenvalues --   -0.44109  -0.42538  -0.42410  -0.41392  -0.40898
 Alpha  occ. eigenvalues --   -0.39435  -0.38957  -0.38426  -0.38227  -0.38180
 Alpha  occ. eigenvalues --   -0.37598  -0.36953  -0.36881  -0.35246  -0.34651
 Alpha  occ. eigenvalues --   -0.33738  -0.32142  -0.28959  -0.26106  -0.25670
 Alpha  occ. eigenvalues --   -0.25655  -0.22928  -0.21984  -0.20789  -0.20476
 Alpha virt. eigenvalues --   -0.03625  -0.03342  -0.01448   0.02493   0.07141
 Alpha virt. eigenvalues --    0.07617   0.08895   0.09115   0.10051   0.11094
 Alpha virt. eigenvalues --    0.11412   0.12580   0.12653   0.13337   0.13836

 Mulliken charges:
               1
     1  C   -0.098521
     2  N   -0.659757
     3  C    0.309431
     4  C    0.089866
     5  C   -0.179459
     6  H    0.152292
     7  C   -0.116782
     8  C    0.279574
     9  N   -0.825089
    10  C    0.279564
    11  C   -0.020367
    12  C   -0.020376
    13  C   -0.153794
    14  H    0.160804
    15  C   -0.153798
    16  C    0.089899
    17  C    0.309450
    18  N   -0.659780
    19  C   -0.098517
    20  C   -0.176516
    21  N   -0.468196
    22  H    0.154992
    23  H    0.157420
    24  H    0.158135
    25  H    0.159397
    26  H    0.328332
    27  C   -0.179483
    28  C   -0.116776
    29  H    0.159755
    30  H    0.152297
    31  H    0.160790
    32  H    0.351891
    33  H    0.159756
    34  N   -0.468189
    35  C   -0.176521
    36  H    0.154992
    37  H    0.157421
    38  H    0.328327
    39  H    0.159398
    40  H    0.158138
 Sum of Mulliken charges =  -0.00000

 Dipole moment (field-independent basis, Debye):
    X=             -0.0003    Y=             -2.1164    Z=              0.0004  Tot=              2.1164
 Quadrupole moment (field-independent basis, Debye-Ang):
   XX=           -158.0434   YY=            -92.3660   ZZ=           -136.6397
   XY=              0.0011   XZ=            -16.3110   YZ=              0.0008

 Normal termination of Gaussian 16 at Wed Apr  2 19:52:47 2025.
